3
Properties=species:S:1:pos:R:3:momenta:R:3:energies:R:1:forces:R:3 energy=1.8792032040648659 free_energy=1.8792032040648659 pbc="F F F"
O        0.00000000      -0.00000000       0.20587902       0.00000000       0.00000000      -0.01364480       0.71027072      -0.00000000       0.00000000       0.02568880
H        0.00000000       0.82656359      -0.51764868      -0.00000000       0.00446902       0.00682240       0.58446624       0.00000000       0.02697500      -0.01284440
H       -0.00000000      -0.82656359      -0.51764868      -0.00000000      -0.00446902       0.00682240       0.58446624      -0.00000000      -0.02697500      -0.01284440
