3
Properties=species:S:1:pos:R:3:energies:R:1:forces:R:3 energy=1.8792752663147128 free_energy=1.8792752663147128 pbc="F F F"
O        0.00000000      -0.00000000       0.20624304       0.71047649      -0.00000000       0.00000000       0.02637833
H        0.00000000       0.82375206      -0.52053752       0.58439939       0.00000000       0.02878535      -0.01318916
H       -0.00000000      -0.82375206      -0.52053752       0.58439939      -0.00000000      -0.02878535      -0.01318916
